version 2
run General-0-20120117-15:25:42-3948
attr configname General
attr datetime 20120117-15:25:42
attr experiment General
attr inifile C:/omnetpp/omnetpp-4.1/samples/dsp2/omnetpp.ini
attr iterationvars ""
attr iterationvars2 $repetition=0
attr measurement ""
attr network SimulationNet
attr processid 3948
attr repetition 0
attr replication #0
attr resultdir results
attr runnumber 0
attr seedset 0

vector 1  SimulationNet.clients[0].user  requestType:vector  ETV
attr interpolationmode  none
attr source  arrival
attr title  "Request Type, vector"
vector 0  SimulationNet.internet  delayOnInternet:vector  ETV
attr interpolationmode  none
attr source  delay
attr title  "Delay on Internet, vector"
vector 2  SimulationNet.clients[1].user  requestType:vector  ETV
attr interpolationmode  none
attr source  arrival
attr title  "Request Type, vector"
vector 3  SimulationNet.clients[2].user  requestType:vector  ETV
attr interpolationmode  none
attr source  arrival
attr title  "Request Type, vector"
0	7	1.881743997444	0.90094652489644
0	16	3.32957633071	0.31693965605774
0	29	10.277711808805	1.3857833020803
0	34	10.39366185431	1.3869774748297
0	47	11.84297508841	0.03659408100978
0	54	11.879569169419	0.36343724616862
0	59	11.948810596123	1.500090643575
0	73	14.048941031299	0.56937723203414
0	82	14.897491604004	0.33642685657332
0	87	15.164560547307	0.90844094596507
0	100	17.078903799546	0.65890641494514
0	109	17.939758914124	1.4980221049463
0	114	19.413226673868	0.48539272166155
0	125	19.898619395529	0.027470043360806
0	135	25.277782184427	0.02117209213016
0	144	27.151518337298	0.027661476563625
0	153	27.48176586806	0.1264967456777
0	160	27.608262613737	0.62523471705514
0	170	30.080679674452	0.18935864481787
0	177	30.270038319269	0.53727687940788
0	187	35.265410620839	2.2878810513895
0	192	36.526251336282	0.43672623925443
0	201	37.458762974041	0.77075151161431
0	208	37.553291672228	0.50321101014494
0	222	38.962736047354	0.34730763728437
0	231	39.562397780722	1.1909495058399
0	238	40.753347286561	1.4970843327354
0	243	41.381673788967	1.4074868133633
0	253	42.310986600812	0.70522431876183
0	258	42.444062770028	1.0305595275797
0	269	43.016210919573	1.4338302004802
0	274	43.276651084053	0.082764940145189
0	281	43.359416024198	0.48074481586788
0	295	44.075793245129	0.80675411837829
0	305	44.494893466309	0.77434370810529
0	310	44.778693697863	0.51295393426696
0	319	45.056872791441	0.044317335830964
0	322	45.101190127271	0.48002558397932
0	323	45.101190127271	1.775793930739
0	330	45.269237174414	0.54823899994944
0	339	45.58121571125	1.4459414432478
0	349	45.931378598301	2.5882899534882
0	362	49.634853149722	0.82630396931396
0	367	49.802002160344	0.026403414827257
0	380	51.243311902807	3.1469804047794
0	385	52.089372726558	0.059441799236013
0	388	52.148814525794	2.6267380661252
0	393	53.885482919202	0.61386522293306
0	398	54.365989411608	0.5890569659602
0	411	54.499348142135	0.062907412085235
0	427	54.955046377568	0.42400947365377
0	428	54.955046377568	2.6833896580907
0	438	56.611342292727	0.19608871437995
0	452	57.882038641723	0.4825183104111
0	461	59.274333217202	1.4056836965328
0	466	59.361094825332	0.63487258897444
0	479	68.468456365507	0.26749811226335
0	488	68.73595447777	0.98788759001897
0	489	68.73595447777	0.67846015367713
0	504	69.758503287332	0.53658111747749
0	513	70.334760428365	0.24580968703452
0	522	70.580570115399	0.79846794870107
0	523	70.580570115399	0.61725317224031
0	538	72.917631208216	0.80969819420715
0	547	73.727329402423	1.7401569591628
0	548	73.727329402423	0.27357997063502
0	563	76.973774216659	1.6483135817672
0	568	78.258264579069	2.5551227890264
0	577	78.622087798426	0.2750557618083
0	578	78.622087798426	0.1850611644565
0	597	82.003026278847	0.5206512942084
0	602	82.103882720075	0.94897904459226
0	615	84.487041661997	1.0644003912023
0	624	85.551442053199	0.2659488192012
0	625	85.551442053199	0.29546600247349
0	640	86.346079682831	1.1577088362718
0	645	87.087585307509	2.3860602446037
0	654	88.510467384859	0.57570297069013
0	657	89.086170355549	0.43603415146299
0	662	89.173157406705	0.34190484342454
0	675	89.473645552112	0.62610797823775
0	676	89.473645552112	1.5440011749133
0	677	89.473645552112	0.3758444148491
0	684	89.515062250129	0.34423309229806
0	687	89.522204507011	0.1372668942206
0	692	89.849489966961	0.057121414118894
0	695	89.859295342427	1.1583836383755
0	696	89.859295342427	0.87499560356124
0	699	89.906611381079	1.3536327283874
0	707	90.734290945988	0.19443873074175
0	723	91.017678980802	2.7747599159615
0	732	94.829045460435	0.73059807585208
0	737	94.850905234573	1.3998393308806
0	744	95.559643536287	0.40463258905102
0	756	96.250744565453	1.2442674638836
0	766	99.9293434647	0.43259578666821
0	771	100.267827618232	0.56558472692831
0	780	100.666919457194	0.39278305096337
0	791	101.059702508157	1.8272087875008
0	801	103.504110262919	0.11553828286299
0	808	103.619648545781	0.3833088970826
0	818	106.869101427418	1.1715960728032
0	823	107.475874629446	0.62438152466027
0	832	108.040697500221	0.61767657429941
0	833	108.040697500221	2.1434276465241
0	842	108.200202903428	1.7341788668913
0	861	111.257229533521	0.71326615906886
0	866	111.286730023737	0.24085958686928
0	873	111.527589610606	0.14207377040801
0	887	112.156181365294	0.27908495919508
0	894	112.435266324489	1.6056557559055
0	904	118.53278527208	0.039045264451377
0	911	118.571830536531	0.17247105245342
0	916	118.677574164607	0.0076018277389084
0	923	118.685175992345	0.63417545400361
0	938	120.171909263434	1.2503530519066
0	947	124.474834420391	0.53522550821614
0	956	125.010059928607	0.20720456774312
0	957	125.010059928607	0.2921563240754
0	972	126.411280651274	0.53729139227049
0	981	129.631208714	0.40108753153421
0	990	130.719006288526	0.59782673053639
0	997	131.316833019062	1.2110864921908
0	1007	137.951877269903	0.37168330535668
0	1016	138.323560575259	0.3856950361441
0	1017	138.323560575259	1.8438052881083
0	1022	138.333945152889	1.4559869514434
0	1036	139.789932104332	0.21984040427747
0	1037	139.789932104332	0.28538990971363
0	1045	140.075322014045	0.44021018487177
0	1056	140.515532198916	0.77087020638715
0	1061	141.196425476681	0.44399751831872
0	1072	141.640422994999	0.021885373132941
0	1073	141.640422994999	0.8463670485414
0	1083	141.670800874508	2.0840726820296
0	1093	142.56760305659	0.15326105027391
0	1102	142.720864106863	2.453912070028
0	1103	142.720864106863	0.33819100176594
0	1108	142.747438213587	0.24415217725129
0	1111	142.991590390838	0.28134881831865
0	1119	143.272939209156	0.91637820058992
0	1124	143.72299902459	0.49680960209424
0	1137	143.754873556537	0.021953117490844
0	1138	143.754873556537	0.12839086693146
0	1139	143.754873556537	0.026538771557534
0	1142	143.776826674027	3.6914764676005
0	1145	143.781412328094	0.36766961702305
0	1156	144.149081945117	1.0624512185451
0	1165	144.219808626684	0.36108933696478
0	1183	147.468303141627	0.83033838990831
0	1188	147.543167824587	0.32817654740514
0	1193	147.86836804897	1.5666850100984
0	1204	149.303529028381	0.14328651334204
0	1211	149.435053059068	0.0020158900780108
0	1225	149.446815541723	2.0605215484047
0	1226	149.446815541723	2.3769135836557
0	1231	151.344156457847	0.19690721237656
0	1243	151.541063670223	0.22347108316517
0	1246	151.764534753388	0.33516149426686
0	1257	152.099696247654	0.1326000902921
0	1264	153.496619002501	0.38306848640262
0	1273	155.093565197742	0.91451710009506
0	1280	156.008082297837	0.61475512154236
0	1290	159.965553005806	0.65086625693417
0	1297	160.61641926274	0.2615673128401
0	1307	161.931193820805	0.054780566069366
0	1314	161.985974386874	0.16353269706654
0	1324	162.800743149334	1.8222714805076
0	1329	163.345283832319	3.1137584052278
0	1336	164.623014629841	3.8148540376618
0	1341	165.866896696755	0.079815836239134
0	1348	165.946712532994	2.2706788614327
0	1353	166.294528061293	0.14650955997161
0	1356	166.441037621264	0.014414813207374
0	1359	166.455452434471	1.0905048277145
0	1372	166.459042237546	0.6754830648842
0	1373	166.459042237546	0.68360702049613
0	1374	166.459042237546	0.24975449953517
0	1379	166.670804826149	0.84267759816627
0	1382	166.708796737081	0.6611057238348
0	1383	166.708796737081	0.31430455560862
0	1386	167.023101292689	0.64574436176612
0	1394	167.142649258042	0.45339917794074
0	1397	167.369902460915	3.631055590237
0	1404	167.513482424315	0.58431832507188
0	1409	167.596048435982	0.066235660108462
0	1425	168.097800749386	0.83245331123188
0	1438	168.930254060617	0.21564352790617
0	1445	169.917088440614	0.61658699794539
0	1450	170.019150030535	0.22996584946647
0	1453	170.249115880001	0.006914154181187
0	1456	170.256030034182	0.10056176893169
0	1461	170.291948121176	0.42906817844391
0	1472	170.356591803113	4.4427374530591
0	1473	170.356591803113	0.165997664907
0	1491	173.421557065003	0.42244251841221
0	1500	174.005844077347	0.53735635483105
0	1514	175.47613598968	0.75561471950194
0	1523	184.243695398241	0.4183272271911
0	1532	185.186817465361	1.0846864379562
0	1539	186.271503903317	0.19572877178792
0	1549	187.42977495452	0.5490539902795
0	1558	187.978828944799	0.14662607105991
0	1559	187.978828944799	0.14405994961087
0	1574	192.302420504106	0.84525491676732
0	1579	192.432486029812	3.3130614314878
0	1586	193.147675420873	2.7773698803379
0	1591	193.175223444303	0.67099921696861
0	1594	193.846222661271	1.0630078563293
0	1599	194.61124645465	0.7592872500306
0	1602	194.9092305176	0.66872558118417
0	1605	195.37053370468	0.052752070677413
0	1606	195.37053370468	1.0239417510291
0	1609	195.423285775357	1.0284288901199
0	1614	195.558854235242	0.59446697786434
0	1631	195.577956098784	1.4870375160692
0	1632	195.577956098784	0.072655792585753
0	1633	195.577956098784	0.42277970197276
0	1634	195.577956098784	1.0402781817651
0	1649	196.000735800756	0.11523442820231
0	1652	196.115970228958	0.94638399138996
0	1680	197.26772178303	0.74833812017962
0	1687	198.016059903209	0.1823039935632
0	1697	208.263489863656	2.7608041977292
0	1702	208.679999742491	0.039121795613295
0	1711	208.719121538104	0.22253163267327
0	1712	208.719121538104	0.54547824805095
0	1722	209.194520095988	0.1402466605618
0	1736	209.334766756549	1.2930945161008
0	1737	209.334766756549	2.6182966370117
0	1747	210.910655964039	0.45986454230545
0	1756	211.024294061385	0.63988155624784
0	1757	211.024294061385	1.8275885198371
0	1764	211.370520506344	0.20336794815228
0	1767	211.573888454496	0.10978176961077
0	1768	211.573888454496	1.9975771092455
0	1771	211.664175617632	0.16791105101738
0	1774	211.683670224106	0.38914599704382
0	1777	211.832086668649	0.039169666150868
0	1800	213.571465563741	0.17718802700122
0	1805	213.718281974898	1.0441119472424
1	3	1.881743997444	1
1	12	3.32957633071	1
1	43	11.84297508841	1
1	69	14.048941031299	1
1	78	14.897491604004	1
1	183	35.265410620839	1
1	358	49.634853149722	1
1	462	59.361094825332	1
1	475	68.468456365507	1
1	564	78.258264579069	1
1	641	87.087585307509	1
1	650	88.510467384859	1
1	733	94.850905234573	1
1	776	100.666919457194	1
1	819	107.475874629446	2
1	857	111.257229533521	1
1	934	120.171909263434	2
1	943	124.474834420391	1
1	1018	138.333945152889	1
1	1089	142.56760305659	1
1	1200	149.303529028381	1
1	1227	151.344156457847	1
1	1375	166.670804826149	1
1	1441	169.917088440614	1
1	1446	170.019150030535	1
1	1487	173.421557065003	2
1	1510	175.47613598968	1
1	1698	208.679999742491	1
1	1718	209.194520095988	1
2	25	10.277711808805	2
2	30	10.39366185431	1
2	131	25.277782184427	1
2	149	27.48176586806	1
2	166	30.080679674452	1
2	188	36.526251336282	1
2	197	37.458762974041	1
2	239	41.381673788967	1
2	270	43.276651084053	1
2	291	44.075793245129	1
2	301	44.494893466309	1
2	306	44.778693697863	2
2	315	45.056872791441	1
2	345	45.931378598301	1
2	363	49.802002160344	1
2	376	51.243311902807	1
2	381	52.089372726558	1
2	394	54.365989411608	1
2	434	56.611342292727	1
2	534	72.917631208216	1
2	598	82.103882720075	1
2	636	86.346079682831	1
2	762	99.9293434647	1
2	767	100.267827618232	1
2	814	106.869101427418	1
2	968	126.411280651274	1
2	1057	141.196425476681	1
2	1079	141.670800874508	1
2	1104	142.747438213587	1
2	1120	143.72299902459	1
2	1184	147.543167824587	2
2	1189	147.86836804897	1
2	1260	153.496619002501	1
2	1269	155.093565197742	1
2	1337	165.866896696755	1
2	1457	170.291948121176	2
2	1496	174.005844077347	1
2	1528	185.186817465361	1
2	1693	208.263489863656	1
3	55	11.948810596123	1
3	83	15.164560547307	2
3	96	17.078903799546	1
3	105	17.939758914124	1
3	110	19.413226673868	1
3	140	27.151518337298	1
3	218	38.962736047354	1
3	227	39.562397780722	1
3	249	42.310986600812	1
3	254	42.444062770028	1
3	389	53.885482919202	1
3	448	57.882038641723	1
3	457	59.274333217202	1
3	500	69.758503287332	1
3	509	70.334760428365	1
3	559	76.973774216659	1
3	593	82.003026278847	1
3	611	84.487041661997	1
3	658	89.173157406705	1
3	728	94.829045460435	1
3	797	103.504110262919	1
3	838	108.200202903428	1
3	862	111.286730023737	1
3	883	112.156181365294	1
3	900	118.53278527208	1
3	912	118.677574164607	1
3	977	129.631208714	1
3	986	130.719006288526	1
3	1003	137.951877269903	1
3	1286	159.965553005806	1
3	1303	161.931193820805	1
3	1320	162.800743149334	1
3	1325	163.345283832319	1
3	1349	166.294528061293	1
3	1519	184.243695398241	2
3	1545	187.42977495452	1
3	1570	192.302420504106	1
3	1575	192.432486029812	1
3	1587	193.175223444303	1
3	1595	194.61124645465	3
3	1610	195.558854235242	2
3	1676	197.26772178303	1
3	1743	210.910655964039	1
3	1801	213.718281974898	1
